         Total DFT energy =     -424.652345459155
@ Step       Energy      Delta E   Gmax     Grms     Xrms     Xmax   Walltime
@ ---- ---------------- -------- -------- -------- -------- -------- --------
@    0    -424.65234546  0.0D+00  0.00275  0.00181  0.00000  0.00000      4.7
         Total DFT energy =     -424.652382501620
         Total DFT energy =   -424.652382501620
@    1    -424.65238250 -3.7D-05  0.00023  0.00013  0.00367  0.00745      7.0
         Total DFT energy =     -424.652377203356
         Total DFT energy =     -424.652383000080

                       DFT Final Molecular Orbital Analysis
                       ------------------------------------

 Vector    1  Occ=2.000000D+00  E=-2.440715D+01  Symmetry=a"

 Vector   16  Occ=2.000000D+00  E=-1.728105D-01  Symmetry=a'

 Vector   17  Occ=2.000000D+00  E=-1.728099D-01  Symmetry=a"

 Vector   18  Occ=2.000000D+00  E=-1.727947D-01  Symmetry=a'

 Vector   19  Occ=2.000000D+00  E=-1.391281D-01  Symmetry=a"

 Vector   20  Occ=2.000000D+00  E=-1.391098D-01  Symmetry=a"

 Vector   21  Occ=2.000000D+00  E=-1.391051D-01  Symmetry=a'

 Vector   22  Occ=0.000000D+00  E= 3.628705D-01  Symmetry=a'

 Vector   23  Occ=0.000000D+00  E= 4.129737D-01  Symmetry=a'

 Vector   24  Occ=0.000000D+00  E= 4.130003D-01  Symmetry=a'

 Vector   25  Occ=0.000000D+00  E= 4.130039D-01  Symmetry=a"

 Vector   26  Occ=0.000000D+00  E= 6.021092D-01  Symmetry=a'

 Vector   27  Occ=0.000000D+00  E= 6.021492D-01  Symmetry=a"

 Vector   28  Occ=0.000000D+00  E= 6.021587D-01  Symmetry=a'

 Vector   29  Occ=0.000000D+00  E= 6.420709D-01  Symmetry=a'

 Vector   30  Occ=0.000000D+00  E= 1.075790D+00  Symmetry=a'

 Vector   31  Occ=0.000000D+00  E= 1.075790D+00  Symmetry=a"

 Vector   32  Occ=0.000000D+00  E= 1.075809D+00  Symmetry=a'

 Vector   33  Occ=0.000000D+00  E= 1.107826D+00  Symmetry=a'

 Vector   34  Occ=0.000000D+00  E= 1.107831D+00  Symmetry=a"

 Vector   35  Occ=0.000000D+00  E= 1.134355D+00  Symmetry=a'

 Vector   36  Occ=0.000000D+00  E= 1.275497D+00  Symmetry=a'

 Vector   37  Occ=0.000000D+00  E= 1.275502D+00  Symmetry=a"

 Vector   38  Occ=0.000000D+00  E= 1.358743D+00  Symmetry=a"

 Vector   39  Occ=0.000000D+00  E= 1.358771D+00  Symmetry=a"

 Vector   40  Occ=0.000000D+00  E= 1.358775D+00  Symmetry=a'

 Vector   41  Occ=0.000000D+00  E= 1.411507D+00  Symmetry=a'

 Vector   42  Occ=0.000000D+00  E= 1.411514D+00  Symmetry=a"

 Vector   43  Occ=0.000000D+00  E= 1.411568D+00  Symmetry=a'

 Vector   44  Occ=0.000000D+00  E= 1.565879D+00  Symmetry=a'

 Vector   45  Occ=0.000000D+00  E= 1.565880D+00  Symmetry=a"

 Vector   46  Occ=0.000000D+00  E= 1.565929D+00  Symmetry=a'

 Vector   47  Occ=0.000000D+00  E= 1.755896D+00  Symmetry=a'

 Vector   48  Occ=0.000000D+00  E= 1.755913D+00  Symmetry=a"

 Vector   49  Occ=0.000000D+00  E= 1.755917D+00  Symmetry=a'

 Vector   50  Occ=0.000000D+00  E= 1.892060D+00  Symmetry=a'

 Vector   51  Occ=0.000000D+00  E= 2.288946D+00  Symmetry=a'

 Vector   52  Occ=0.000000D+00  E= 2.429724D+00  Symmetry=a'

 Vector   53  Occ=0.000000D+00  E= 2.429804D+00  Symmetry=a"

 Vector   54  Occ=0.000000D+00  E= 2.429828D+00  Symmetry=a'

 Vector   55  Occ=0.000000D+00  E= 4.001482D+00  Symmetry=a"

 Vector   56  Occ=0.000000D+00  E= 4.001497D+00  Symmetry=a"

 Vector   57  Occ=0.000000D+00  E= 4.001501D+00  Symmetry=a'

 Vector   58  Occ=0.000000D+00  E= 4.032585D+00  Symmetry=a'

 Vector   59  Occ=0.000000D+00  E= 4.032585D+00  Symmetry=a"

 Vector   60  Occ=0.000000D+00  E= 4.034001D+00  Symmetry=a"

 Vector   61  Occ=0.000000D+00  E= 4.034013D+00  Symmetry=a"

 Vector   62  Occ=0.000000D+00  E= 4.034017D+00  Symmetry=a'

 Vector   63  Occ=0.000000D+00  E= 4.045353D+00  Symmetry=a'

 Vector   64  Occ=0.000000D+00  E= 4.045354D+00  Symmetry=a'

 Vector   65  Occ=0.000000D+00  E= 4.045357D+00  Symmetry=a"

 Vector   66  Occ=0.000000D+00  E= 4.310265D+00  Symmetry=a'

 Vector   67  Occ=0.000000D+00  E= 4.310406D+00  Symmetry=a'

 Vector   68  Occ=0.000000D+00  E= 4.310410D+00  Symmetry=a"

 Vector   69  Occ=0.000000D+00  E= 4.460219D+00  Symmetry=a'

 Vector   70  Occ=0.000000D+00  E= 4.496669D+00  Symmetry=a"

 Vector   71  Occ=0.000000D+00  E= 4.496676D+00  Symmetry=a'

 Vector   72  Occ=0.000000D+00  E= 4.765336D+00  Symmetry=a"

 Vector   73  Occ=0.000000D+00  E= 4.765344D+00  Symmetry=a'

 Vector   74  Occ=0.000000D+00  E= 4.765373D+00  Symmetry=a'

 Vector   75  Occ=0.000000D+00  E= 6.244579D+00  Symmetry=a"

 Vector   76  Occ=0.000000D+00  E= 6.244580D+00  Symmetry=a'

 Vector   77  Occ=0.000000D+00  E= 6.254843D+00  Symmetry=a'

 Vector   78  Occ=0.000000D+00  E= 6.368102D+00  Symmetry=a'

 Vector   79  Occ=0.000000D+00  E= 6.368106D+00  Symmetry=a"

 Vector   80  Occ=0.000000D+00  E= 6.368148D+00  Symmetry=a'

 Vector   81  Occ=0.000000D+00  E= 6.376113D+00  Symmetry=a"

 Vector   82  Occ=0.000000D+00  E= 6.376124D+00  Symmetry=a"

 Vector   83  Occ=0.000000D+00  E= 6.376132D+00  Symmetry=a'

 Vector   84  Occ=0.000000D+00  E= 6.675008D+00  Symmetry=a'

 Vector   85  Occ=0.000000D+00  E= 6.675038D+00  Symmetry=a"

 Vector   86  Occ=0.000000D+00  E= 6.675065D+00  Symmetry=a'

 Vector   87  Occ=0.000000D+00  E= 8.486615D+00  Symmetry=a"

 Vector   88  Occ=0.000000D+00  E= 8.486616D+00  Symmetry=a'

 Vector   89  Occ=0.000000D+00  E= 8.486637D+00  Symmetry=a'

 Vector   90  Occ=0.000000D+00  E= 8.602029D+00  Symmetry=a'

 Vector   91  Occ=0.000000D+00  E= 1.640708D+01  Symmetry=a'

 Vector   92  Occ=0.000000D+00  E= 7.406822D+01  Symmetry=a"

 Vector   93  Occ=0.000000D+00  E= 7.406823D+01  Symmetry=a'

 Vector   94  Occ=0.000000D+00  E= 7.406825D+01  Symmetry=a'

 Vector   95  Occ=0.000000D+00  E= 7.417613D+01  Symmetry=a'

     Multipole analysis of the density
     ---------------------------------

     L   x y z        total         alpha         beta         nuclear
     -   - - -        -----         -----         ----         -------
     0   0 0 0     -1.000000    -21.000000    -21.000000     41.000000

     1   1 0 0      0.000170      0.000046      0.000046      0.000079
     1   0 1 0      0.000198      0.000842      0.000842     -0.001485
     1   0 0 1      0.000000      0.000000      0.000000      0.000000

     2   2 0 0    -22.804223    -54.181956    -54.181956     85.559688
     2   1 1 0      0.000280      0.004451      0.004451     -0.008622
     2   1 0 1      0.000000      0.000000      0.000000      0.000000
     2   0 2 0    -22.804068    -54.176996    -54.176996     85.549923
     2   0 1 1      0.000000      0.000000      0.000000      0.000000

@    2    -424.65238300 -5.0D-07  0.00005  0.00003  0.00066  0.00128     12.1
@    2    -424.65238300 -5.0D-07  0.00005  0.00003  0.00066  0.00128     12.1

 Output coordinates in angstroms (scale by  1.889725989 to convert to a.u.)

  No.       Tag          Charge          X              Y              Z
 ---- ---------------- ---------- -------------- -------------- --------------
    1 B                    5.0000     0.00005018     0.00005956     0.00000000
    2 F                    9.0000    -0.63222568    -1.26357714     0.00000000
    3 F                    9.0000     1.40214578    -0.17499641     0.00000000
    4 F                    9.0000    -0.38497167     0.71922657    -1.15374127
    5 F                    9.0000    -0.38497167     0.71922657     1.15374127

 Total times  cpu:        5.5s     wall:       12.4s
